Position data for Ni File

32000 atoms
1 atom types
-36.150000	36.150000	 xlo xhi
-36.150000	36.150000	 ylo yhi
-36.150000	36.150000	 zlo zhi
0.0 0.0 0.0 xy xz yz

Atoms

1	 1	 -36.150000	-36.150000	-36.150000
2	 1	 -34.342500	-34.342500	-36.150000
3	 1	 -34.342500	-36.150000	-34.342500
4	 1	 -36.150000	-34.342500	-34.342500
5	 1	 -36.150000	-36.150000	-32.535000
6	 1	 -34.342500	-34.342500	-32.535000
7	 1	 -34.342500	-36.150000	-30.727500
8	 1	 -36.150000	-34.342500	-30.727500
9	 1	 -36.150000	-36.150000	-28.920000
10	 1	 -34.342500	-34.342500	-28.920000
11	 1	 -34.342500	-36.150000	-27.112500
12	 1	 -36.150000	-34.342500	-27.112500
13	 1	 -36.150000	-36.150000	-25.305000
14	 1	 -34.342500	-34.342500	-25.305000
15	 1	 -34.342500	-36.150000	-23.497500
16	 1	 -36.150000	-34.342500	-23.497500
17	 1	 -36.150000	-36.150000	-21.690000
18	 1	 -34.342500	-34.342500	-21.690000
19	 1	 -34.342500	-36.150000	-19.882500
20	 1	 -36.150000	-34.342500	-19.882500
21	 1	 -36.150000	-36.150000	-18.075000
22	 1	 -34.342500	-34.342500	-18.075000
23	 1	 -34.342500	-36.150000	-16.267500
24	 1	 -36.150000	-34.342500	-16.267500
25	 1	 -36.150000	-36.150000	-14.460000
26	 1	 -34.342500	-34.342500	-14.460000
27	 1	 -34.342500	-36.150000	-12.652500
28	 1	 -36.150000	-34.342500	-12.652500
29	 1	 -36.150000	-36.150000	-10.845000
30	 1	 -34.342500	-34.342500	-10.845000
31	 1	 -34.342500	-36.150000	-9.037500
32	 1	 -36.150000	-34.342500	-9.037500
33	 1	 -36.150000	-36.150000	-7.230000
34	 1	 -34.342500	-34.342500	-7.230000
35	 1	 -34.342500	-36.150000	-5.422500
36	 1	 -36.150000	-34.342500	-5.422500
37	 1	 -36.150000	-36.150000	-3.615000
38	 1	 -34.342500	-34.342500	-3.615000
39	 1	 -34.342500	-36.150000	-1.807500
40	 1	 -36.150000	-34.342500	-1.807500
41	 1	 -36.150000	-36.150000	0.000000
42	 1	 -34.342500	-34.342500	0.000000
43	 1	 -34.342500	-36.150000	1.807500
44	 1	 -36.150000	-34.342500	1.807500
45	 1	 -36.150000	-36.150000	3.615000
46	 1	 -34.342500	-34.342500	3.615000
47	 1	 -34.342500	-36.150000	5.422500
48	 1	 -36.150000	-34.342500	5.422500
49	 1	 -36.150000	-36.150000	7.230000
50	 1	 -34.342500	-34.342500	7.230000
51	 1	 -34.342500	-36.150000	9.037500
52	 1	 -36.150000	-34.342500	9.037500
53	 1	 -36.150000	-36.150000	10.845000
54	 1	 -34.342500	-34.342500	10.845000
55	 1	 -34.342500	-36.150000	12.652500
56	 1	 -36.150000	-34.342500	12.652500
57	 1	 -36.150000	-36.150000	14.460000
58	 1	 -34.342500	-34.342500	14.460000
59	 1	 -34.342500	-36.150000	16.267500
60	 1	 -36.150000	-34.342500	16.267500
61	 1	 -36.150000	-36.150000	18.075000
62	 1	 -34.342500	-34.342500	18.075000
63	 1	 -34.342500	-36.150000	19.882500
64	 1	 -36.150000	-34.342500	19.882500
65	 1	 -36.150000	-36.150000	21.690000
66	 1	 -34.342500	-34.342500	21.690000
67	 1	 -34.342500	-36.150000	23.497500
68	 1	 -36.150000	-34.342500	23.497500
69	 1	 -36.150000	-36.150000	25.305000
70	 1	 -34.342500	-34.342500	25.305000
71	 1	 -34.342500	-36.150000	27.112500
72	 1	 -36.150000	-34.342500	27.112500
73	 1	 -36.150000	-36.150000	28.920000
74	 1	 -34.342500	-34.342500	28.920000
75	 1	 -34.342500	-36.150000	30.727500
76	 1	 -36.150000	-34.342500	30.727500
77	 1	 -36.150000	-36.150000	32.535000
78	 1	 -34.342500	-34.342500	32.535000
79	 1	 -34.342500	-36.150000	34.342500
80	 1	 -36.150000	-34.342500	34.342500
81	 1	 -36.150000	-32.535000	-36.150000
82	 1	 -34.342500	-30.727500	-36.150000
83	 1	 -34.342500	-32.535000	-34.342500
84	 1	 -36.150000	-30.727500	-34.342500
85	 1	 -36.150000	-32.535000	-32.535000
86	 1	 -34.342500	-30.727500	-32.535000
87	 1	 -34.342500	-32.535000	-30.727500
88	 1	 -36.150000	-30.727500	-30.727500
89	 1	 -36.150000	-32.535000	-28.920000
90	 1	 -34.342500	-30.727500	-28.920000
91	 1	 -34.342500	-32.535000	-27.112500
92	 1	 -36.150000	-30.727500	-27.112500
93	 1	 -36.150000	-32.535000	-25.305000
94	 1	 -34.342500	-30.727500	-25.305000
95	 1	 -34.342500	-32.535000	-23.497500
96	 1	 -36.150000	-30.727500	-23.497500
97	 1	 -36.150000	-32.535000	-21.690000
98	 1	 -34.342500	-30.727500	-21.690000
99	 1	 -34.342500	-32.535000	-19.882500
100	 1	 -36.150000	-30.727500	-19.882500
101	 1	 -36.150000	-32.535000	-18.075000
102	 1	 -34.342500	-30.727500	-18.075000
103	 1	 -34.342500	-32.535000	-16.267500
104	 1	 -36.150000	-30.727500	-16.267500
105	 1	 -36.150000	-32.535000	-14.460000
106	 1	 -34.342500	-30.727500	-14.460000
107	 1	 -34.342500	-32.535000	-12.652500
108	 1	 -36.150000	-30.727500	-12.652500
109	 1	 -36.150000	-32.535000	-10.845000
110	 1	 -34.342500	-30.727500	-10.845000
111	 1	 -34.342500	-32.535000	-9.037500
112	 1	 -36.150000	-30.727500	-9.037500
113	 1	 -36.150000	-32.535000	-7.230000
114	 1	 -34.342500	-30.727500	-7.230000
115	 1	 -34.342500	-32.535000	-5.422500
116	 1	 -36.150000	-30.727500	-5.422500
117	 1	 -36.150000	-32.535000	-3.615000
118	 1	 -34.342500	-30.727500	-3.615000
119	 1	 -34.342500	-32.535000	-1.807500
120	 1	 -36.150000	-30.727500	-1.807500
121	 1	 -36.150000	-32.535000	0.000000
122	 1	 -34.342500	-30.727500	0.000000
123	 1	 -34.342500	-32.535000	1.807500
124	 1	 -36.150000	-30.727500	1.807500
125	 1	 -36.150000	-32.535000	3.615000
126	 1	 -34.342500	-30.727500	3.615000
127	 1	 -34.342500	-32.535000	5.422500
128	 1	 -36.150000	-30.727500	5.422500
129	 1	 -36.150000	-32.535000	7.230000
130	 1	 -34.342500	-30.727500	7.230000
131	 1	 -34.342500	-32.535000	9.037500
132	 1	 -36.150000	-30.727500	9.037500
133	 1	 -36.150000	-32.535000	10.845000
134	 1	 -34.342500	-30.727500	10.845000
135	 1	 -34.342500	-32.535000	12.652500
136	 1	 -36.150000	-30.727500	12.652500
137	 1	 -36.150000	-32.535000	14.460000
138	 1	 -34.342500	-30.727500	14.460000
139	 1	 -34.342500	-32.535000	16.267500
140	 1	 -36.150000	-30.727500	16.267500
141	 1	 -36.150000	-32.535000	18.075000
142	 1	 -34.342500	-30.727500	18.075000
143	 1	 -34.342500	-32.535000	19.882500
144	 1	 -36.150000	-30.727500	19.882500
145	 1	 -36.150000	-32.535000	21.690000
146	 1	 -34.342500	-30.727500	21.690000
147	 1	 -34.342500	-32.535000	23.497500
148	 1	 -36.150000	-30.727500	23.497500
149	 1	 -36.150000	-32.535000	25.305000
150	 1	 -34.342500	-30.727500	25.305000
151	 1	 -34.342500	-32.535000	27.112500
152	 1	 -36.150000	-30.727500	27.112500
153	 1	 -36.150000	-32.535000	28.920000
154	 1	 -34.342500	-30.727500	28.920000
155	 1	 -34.342500	-32.535000	30.727500
156	 1	 -36.150000	-30.727500	30.727500
157	 1	 -36.150000	-32.535000	32.535000
158	 1	 -34.342500	-30.727500	32.535000
159	 1	 -34.342500	-32.535000	34.342500
160	 1	 -36.150000	-30.727500	34.342500
161	 1	 -36.150000	-28.920000	-36.150000
162	 1	 -34.342500	-27.112500	-36.150000
163	 1	 -34.342500	-28.920000	-34.342500
164	 1	 -36.150000	-27.112500	-34.342500
165	 1	 -36.150000	-28.920000	-32.535000
166	 1	 -34.342500	-27.112500	-32.535000
167	 1	 -34.342500	-28.920000	-30.727500
168	 1	 -36.150000	-27.112500	-30.727500
169	 1	 -36.150000	-28.920000	-28.920000
170	 1	 -34.342500	-27.112500	-28.920000
171	 1	 -34.342500	-28.920000	-27.112500
172	 1	 -36.150000	-27.112500	-27.112500
173	 1	 -36.150000	-28.920000	-25.305000
174	 1	 -34.342500	-27.112500	-25.305000
175	 1	 -34.342500	-28.920000	-23.497500
176	 1	 -36.150000	-27.112500	-23.497500
177	 1	 -36.150000	-28.920000	-21.690000
178	 1	 -34.342500	-27.112500	-21.690000
179	 1	 -34.342500	-28.920000	-19.882500
180	 1	 -36.150000	-27.112500	-19.882500
181	 1	 -36.150000	-28.920000	-18.075000
182	 1	 -34.342500	-27.112500	-18.075000
183	 1	 -34.342500	-28.920000	-16.267500
184	 1	 -36.150000	-27.112500	-16.267500
185	 1	 -36.150000	-28.920000	-14.460000
186	 1	 -34.342500	-27.112500	-14.460000
187	 1	 -34.342500	-28.920000	-12.652500
188	 1	 -36.150000	-27.112500	-12.652500
189	 1	 -36.150000	-28.920000	-10.845000
190	 1	 -34.342500	-27.112500	-10.845000
191	 1	 -34.342500	-28.920000	-9.037500
192	 1	 -36.150000	-27.112500	-9.037500
193	 1	 -36.150000	-28.920000	-7.230000
194	 1	 -34.342500	-27.112500	-7.230000
195	 1	 -34.342500	-28.920000	-5.422500
196	 1	 -36.150000	-27.112500	-5.422500
197	 1	 -36.150000	-28.920000	-3.615000
198	 1	 -34.342500	-27.112500	-3.615000
199	 1	 -34.342500	-28.920000	-1.807500
200	 1	 -36.150000	-27.112500	-1.807500
201	 1	 -36.150000	-28.920000	0.000000
202	 1	 -34.342500	-27.112500	0.000000
203	 1	 -34.342500	-28.920000	1.807500
204	 1	 -36.150000	-27.112500	1.807500
205	 1	 -36.150000	-28.920000	3.615000
206	 1	 -34.342500	-27.112500	3.615000
207	 1	 -34.342500	-28.920000	5.422500
208	 1	 -36.150000	-27.112500	5.422500
209	 1	 -36.150000	-28.920000	7.230000
210	 1	 -34.342500	-27.112500	7.230000
211	 1	 -34.342500	-28.920000	9.037500
212	 1	 -36.150000	-27.112500	9.037500
213	 1	 -36.150000	-28.920000	10.845000
214	 1	 -34.342500	-27.112500	10.845000
215	 1	 -34.342500	-28.920000	12.652500
216	 1	 -36.150000	-27.112500	12.652500
217	 1	 -36.150000	-28.920000	14.460000
218	 1	 -34.342500	-27.112500	14.460000
219	 1	 -34.342500	-28.920000	16.267500
220	 1	 -36.150000	-27.112500	16.267500
221	 1	 -36.150000	-28.920000	18.075000
222	 1	 -34.342500	-27.112500	18.075000
223	 1	 -34.342500	-28.920000	19.882500
224	 1	 -36.150000	-27.112500	19.882500
225	 1	 -36.150000	-28.920000	21.690000
226	 1	 -34.342500	-27.112500	21.690000
227	 1	 -34.342500	-28.920000	23.497500
228	 1	 -36.150000	-27.112500	23.497500
229	 1	 -36.150000	-28.920000	25.305000
230	 1	 -34.342500	-27.112500	25.305000
231	 1	 -34.342500	-28.920000	27.112500
232	 1	 -36.150000	-27.112500	27.112500
233	 1	 -36.150000	-28.920000	28.920000
234	 1	 -34.342500	-27.112500	28.920000
235	 1	 -34.342500	-28.920000	30.727500
236	 1	 -36.150000	-27.112500	30.727500
237	 1	 -36.150000	-28.920000	32.535000
238	 1	 -34.342500	-27.112500	32.535000
239	 1	 -34.342500	-28.920000	34.342500
240	 1	 -36.150000	-27.112500	34.342500
241	 1	 -36.150000	-25.305000	-36.150000
242	 1	 -34.342500	-23.497500	-36.150000
243	 1	 -34.342500	-25.305000	-34.342500
244	 1	 -36.150000	-23.497500	-34.342500
245	 1	 -36.150000	-25.305000	-32.535000
246	 1	 -34.342500	-23.497500	-32.535000
247	 1	 -34.342500	-25.305000	-30.727500
248	 1	 -36.150000	-23.497500	-30.727500
249	 1	 -36.150000	-25.305000	-28.920000
250	 1	 -34.342500	-23.497500	-28.920000
251	 1	 -34.342500	-25.305000	-27.112500
252	 1	 -36.150000	-23.497500	-27.112500
253	 1	 -36.150000	-25.305000	-25.305000
254	 1	 -34.342500	-23.497500	-25.305000
255	 1	 -34.342500	-25.305000	-23.497500
256	 1	 -36.150000	-23.497500	-23.497500
257	 1	 -36.150000	-25.305000	-21.690000
258	 1	 -34.342500	-23.497500	-21.690000
259	 1	 -34.342500	-25.305000	-19.882500
260	 1	 -36.150000	-23.497500	-19.882500
261	 1	 -36.150000	-25.305000	-18.075000
262	 1	 -34.342500	-23.497500	-18.075000
263	 1	 -34.342500	-25.305000	-16.267500
264	 1	 -36.150000	-23.497500	-16.267500
265	 1	 -36.150000	-25.305000	-14.460000
266	 1	 -34.342500	-23.497500	-14.460000
267	 1	 -34.342500	-25.305000	-12.652500
268	 1	 -36.150000	-23.497500	-12.652500
269	 1	 -36.150000	-25.305000	-10.845000
270	 1	 -34.342500	-23.497500	-10.845000
271	 1	 -34.342500	-25.305000	-9.037500
272	 1	 -36.150000	-23.497500	-9.037500
273	 1	 -36.150000	-25.305000	-7.230000
274	 1	 -34.342500	-23.497500	-7.230000
275	 1	 -34.342500	-25.305000	-5.422500
276	 1	 -36.150000	-23.497500	-5.422500
277	 1	 -36.150000	-25.305000	-3.615000
278	 1	 -34.342500	-23.497500	-3.615000
279	 1	 -34.342500	-25.305000	-1.807500
280	 1	 -36.150000	-23.497500	-1.807500
281	 1	 -36.150000	-25.305000	0.000000
282	 1	 -34.342500	-23.497500	0.000000
283	 1	 -34.342500	-25.305000	1.807500
284	 1	 -36.150000	-23.497500	1.807500
285	 1	 -36.150000	-25.305000	3.615000
286	 1	 -34.342500	-23.497500	3.615000
287	 1	 -34.342500	-25.305000	5.422500
288	 1	 -36.150000	-23.497500	5.422500
289	 1	 -36.150000	-25.305000	7.230000
290	 1	 -34.342500	-23.497500	7.230000
291	 1	 -34.342500	-25.305000	9.037500
292	 1	 -36.150000	-23.497500	9.037500
293	 1	 -36.150000	-25.305000	10.845000
294	 1	 -34.342500	-23.497500	10.845000
295	 1	 -34.342500	-25.305000	12.652500
296	 1	 -36.150000	-23.497500	12.652500
297	 1	 -36.150000	-25.305000	14.460000
298	 1	 -34.342500	-23.497500	14.460000
299	 1	 -34.342500	-25.305000	16.267500
300	 1	 -36.150000	-23.497500	16.267500
301	 1	 -36.150000	-25.305000	18.075000
302	 1	 -34.342500	-23.497500	18.075000
303	 1	 -34.342500	-25.305000	19.882500
304	 1	 -36.150000	-23.497500	19.882500
305	 1	 -36.150000	-25.305000	21.690000
306	 1	 -34.342500	-23.497500	21.690000
307	 1	 -34.342500	-25.305000	23.497500
308	 1	 -36.150000	-23.497500	23.497500
309	 1	 -36.150000	-25.305000	25.305000
310	 1	 -34.342500	-23.497500	25.305000
311	 1	 -34.342500	-25.305000	27.112500
312	 1	 -36.150000	-23.497500	27.112500
313	 1	 -36.150000	-25.305000	28.920000
314	 1	 -34.342500	-23.497500	28.920000
315	 1	 -34.342500	-25.305000	30.727500
316	 1	 -36.150000	-23.497500	30.727500
317	 1	 -36.150000	-25.305000	32.535000
318	 1	 -34.342500	-23.497500	32.535000
319	 1	 -34.342500	-25.305000	34.342500
320	 1	 -36.150000	-23.497500	34.342500
321	 1	 -36.150000	-21.690000	-36.150000
322	 1	 -34.342500	-19.882500	-36.150000
323	 1	 -34.342500	-21.690000	-34.342500
324	 1	 -36.150000	-19.882500	-34.342500
325	 1	 -36.150000	-21.690000	-32.535000
326	 1	 -34.342500	-19.882500	-32.535000
327	 1	 -34.342500	-21.690000	-30.727500
328	 1	 -36.150000	-19.882500	-30.727500
329	 1	 -36.150000	-21.690000	-28.920000
330	 1	 -34.342500	-19.882500	-28.920000
331	 1	 -34.342500	-21.690000	-27.112500
332	 1	 -36.150000	-19.882500	-27.112500
333	 1	 -36.150000	-21.690000	-25.305000
334	 1	 -34.342500	-19.882500	-25.305000
335	 1	 -34.342500	-21.690000	-23.497500
336	 1	 -36.150000	-19.882500	-23.497500
337	 1	 -36.150000	-21.690000	-21.690000
338	 1	 -34.342500	-19.882500	-21.690000
339	 1	 -34.342500	-21.690000	-19.882500
340	 1	 -36.150000	-19.882500	-19.882500
341	 1	 -36.150000	-21.690000	-18.075000
342	 1	 -34.342500	-19.882500	-18.075000
343	 1	 -34.342500	-21.690000	-16.267500
344	 1	 -36.150000	-19.882500	-16.267500
345	 1	 -36.150000	-21.690000	-14.460000
346	 1	 -34.342500	-19.882500	-14.460000
347	 1	 -34.342500	-21.690000	-12.652500
348	 1	 -36.150000	-19.882500	-12.652500
349	 1	 -36.150000	-21.690000	-10.845000
350	 1	 -34.342500	-19.882500	-10.845000
351	 1	 -34.342500	-21.690000	-9.037500
352	 1	 -36.150000	-19.882500	-9.037500
353	 1	 -36.150000	-21.690000	-7.230000
354	 1	 -34.342500	-19.882500	-7.230000
355	 1	 -34.342500	-21.690000	-5.422500
356	 1	 -36.150000	-19.882500	-5.422500
357	 1	 -36.150000	-21.690000	-3.615000
358	 1	 -34.342500	-19.882500	-3.615000
359	 1	 -34.342500	-21.690000	-1.807500
360	 1	 -36.150000	-19.882500	-1.807500
361	 1	 -36.150000	-21.690000	0.000000
362	 1	 -34.342500	-19.882500	0.000000
363	 1	 -34.342500	-21.690000	1.807500
364	 1	 -36.150000	-19.882500	1.807500
365	 1	 -36.150000	-21.690000	3.615000
366	 1	 -34.342500	-19.882500	3.615000
367	 1	 -34.342500	-21.690000	5.422500
368	 1	 -36.150000	-19.882500	5.422500
369	 1	 -36.150000	-21.690000	7.230000
370	 1	 -34.342500	-19.882500	7.230000
371	 1	 -34.342500	-21.690000	9.037500
372	 1	 -36.150000	-19.882500	9.037500
373	 1	 -36.150000	-21.690000	10.845000
374	 1	 -34.342500	-19.882500	10.845000
375	 1	 -34.342500	-21.690000	12.652500
376	 1	 -36.150000	-19.882500	12.652500
377	 1	 -36.150000	-21.690000	14.460000
378	 1	 -34.342500	-19.882500	14.460000
379	 1	 -34.342500	-21.690000	16.267500
380	 1	 -36.150000	-19.882500	16.267500
381	 1	 -36.150000	-21.690000	18.075000
382	 1	 -34.342500	-19.882500	18.075000
383	 1	 -34.342500	-21.690000	19.882500
384	 1	 -36.150000	-19.882500	19.882500
385	 1	 -36.150000	-21.690000	21.690000
386	 1	 -34.342500	-19.882500	21.690000
387	 1	 -34.342500	-21.690000	23.497500
388	 1	 -36.150000	-19.882500	23.497500
389	 1	 -36.150000	-21.690000	25.305000
390	 1	 -34.342500	-19.882500	25.305000
391	 1	 -34.342500	-21.690000	27.112500
392	 1	 -36.150000	-19.882500	27.112500
393	 1	 -36.150000	-21.690000	28.920000
394	 1	 -34.342500	-19.882500	28.920000
395	 1	 -34.342500	-21.690000	30.727500
396	 1	 -36.150000	-19.882500	30.727500
397	 1	 -36.150000	-21.690000	32.535000
398	 1	 -34.342500	-19.882500	32.535000
399	 1	 -34.342500	-21.690000	34.342500
400	 1	 -36.150000	-19.882500	34.342500
401	 1	 -36.150000	-18.075000	-36.150000
402	 1	 -34.342500	-16.267500	-36.150000
403	 1	 -34.342500	-18.075000	-34.342500
404	 1	 -36.150000	-16.267500	-34.342500
405	 1	 -36.150000	-18.075000	-32.535000
406	 1	 -34.342500	-16.267500	-32.535000
407	 1	 -34.342500	-18.075000	-30.727500
408	 1	 -36.150000	-16.267500	-30.727500
409	 1	 -36.150000	-18.075000	-28.920000
410	 1	 -34.342500	-16.267500	-28.920000
411	 1	 -34.342500	-18.075000	-27.112500
412	 1	 -36.150000	-16.267500	-27.112500
413	 1	 -36.150000	-18.075000	-25.305000
414	 1	 -34.342500	-16.267500	-25.305000
415	 1	 -34.342500	-18.075000	-23.497500
416	 1	 -36.150000	-16.267500	-23.497500
417	 1	 -36.150000	-18.075000	-21.690000
418	 1	 -34.342500	-16.267500	-21.690000
419	 1	 -34.342500	-18.075000	-19.882500
420	 1	 -36.150000	-16.267500	-19.882500
421	 1	 -36.150000	-18.075000	-18.075000
422	 1	 -34.342500	-16.267500	-18.075000
423	 1	 -34.342500	-18.075000	-16.267500
424	 1	 -36.150000	-16.267500	-16.267500
425	 1	 -36.150000	-18.075000	-14.460000
426	 1	 -34.342500	-16.267500	-14.460000
427	 1	 -34.342500	-18.075000	-12.652500
428	 1	 -36.150000	-16.267500	-12.652500
429	 1	 -36.150000	-18.075000	-10.845000
430	 1	 -34.342500	-16.267500	-10.845000
431	 1	 -34.342500	-18.075000	-9.037500
432	 1	 -36.150000	-16.267500	-9.037500
433	 1	 -36.150000	-18.075000	-7.230000
434	 1	 -34.342500	-16.267500	-7.230000
435	 1	 -34.342500	-18.075000	-5.422500
436	 1	 -36.150000	-16.267500	-5.422500
437	 1	 -36.150000	-18.075000	-3.615000
438	 1	 -34.342500	-16.267500	-3.615000
439	 1	 -34.342500	-18.075000	-1.807500
440	 1	 -36.150000	-16.267500	-1.807500
441	 1	 -36.150000	-18.075000	0.000000
442	 1	 -34.342500	-16.267500	0.000000
443	 1	 -34.342500	-18.075000	1.807500
444	 1	 -36.150000	-16.267500	1.807500
445	 1	 -36.150000	-18.075000	3.615000
446	 1	 -34.342500	-16.267500	3.615000
447	 1	 -34.342500	-18.075000	5.422500
448	 1	 -36.150000	-16.267500	5.422500
449	 1	 -36.150000	-18.075000	7.230000
450	 1	 -34.342500	-16.267500	7.230000
451	 1	 -34.342500	-18.075000	9.037500
452	 1	 -36.150000	-16.267500	9.037500
453	 1	 -36.150000	-18.075000	10.845000
454	 1	 -34.342500	-16.267500	10.845000
455	 1	 -34.342500	-18.075000	12.652500
456	 1	 -36.150000	-16.267500	12.652500
457	 1	 -36.150000	-18.075000	14.460000
458	 1	 -34.342500	-16.267500	14.460000
459	 1	 -34.342500	-18.075000	16.267500
460	 1	 -36.150000	-16.267500	16.267500
461	 1	 -36.150000	-18.075000	18.075000
462	 1	 -34.342500	-16.267500	18.075000
463	 1	 -34.342500	-18.075000	19.882500
464	 1	 -36.150000	-16.267500	19.882500
465	 1	 -36.150000	-18.075000	21.690000
466	 1	 -34.342500	-16.267500	21.690000
467	 1	 -34.342500	-18.075000	23.497500
468	 1	 -36.150000	-16.267500	23.497500
469	 1	 -36.150000	-18.075000	25.305000
470	 1	 -34.342500	-16.267500	25.305000
471	 1	 -34.342500	-18.075000	27.112500
472	 1	 -36.150000	-16.267500	27.112500
473	 1	 -36.150000	-18.075000	28.920000
474	 1	 -34.342500	-16.267500	28.920000
475	 1	 -34.342500	-18.075000	30.727500
476	 1	 -36.150000	-16.267500	30.727500
477	 1	 -36.150000	-18.075000	32.535000
478	 1	 -34.342500	-16.267500	32.535000
479	 1	 -34.342500	-18.075000	34.342500
480	 1	 -36.150000	-16.267500	34.342500
481	 1	 -36.150000	-14.460000	-36.150000
482	 1	 -34.342500	-12.652500	-36.150000
483	 1	 -34.342500	-14.460000	-34.342500
484	 1	 -36.150000	-12.652500	-34.342500
485	 1	 -36.150000	-14.460000	-32.535000
486	 1	 -34.342500	-12.652500	-32.535000
487	 1	 -34.342500	-14.460000	-30.727500
488	 1	 -36.150000	-12.652500	-30.727500
489	 1	 -36.150000	-14.460000	-28.920000
490	 1	 -34.342500	-12.652500	-28.920000
491	 1	 -34.342500	-14.460000	-27.112500
492	 1	 -36.150000	-12.652500	-27.112500
493	 1	 -36.150000	-14.460000	-25.305000
494	 1	 -34.342500	-12.652500	-25.305000
495	 1	 -34.342500	-14.460000	-23.497500
496	 1	 -36.150000	-12.652500	-23.497500
497	 1	 -36.150000	-14.460000	-21.690000
498	 1	 -34.342500	-12.652500	-21.690000
499	 1	 -34.342500	-14.460000	-19.882500
500	 1	 -36.150000	-12.652500	-19.882500
501	 1	 -36.150000	-14.460000	-18.075000
502	 1	 -34.342500	-12.652500	-18.075000
503	 1	 -34.342500	-14.460000	-16.267500
504	 1	 -36.150000	-12.652500	-16.267500
505	 1	 -36.150000	-14.460000	-14.460000
506	 1	 -34.342500	-12.652500	-14.460000
507	 1	 -34.342500	-14.460000	-12.652500
508	 1	 -36.150000	-12.652500	-12.652500
509	 1	 -36.150000	-14.460000	-10.845000
510	 1	 -34.342500	-12.652500	-10.845000
511	 1	 -34.342500	-14.460000	-9.037500
512	 1	 -36.150000	-12.652500	-9.037500
513	 1	 -36.150000	-14.460000	-7.230000
514	 1	 -34.342500	-12.652500	-7.230000
515	 1	 -34.342500	-14.460000	-5.422500
516	 1	 -36.150000	-12.652500	-5.422500
517	 1	 -36.150000	-14.460000	-3.615000
518	 1	 -34.342500	-12.652500	-3.615000
519	 1	 -34.342500	-14.460000	-1.807500
520	 1	 -36.150000	-12.652500	-1.807500
521	 1	 -36.150000	-14.460000	0.000000
522	 1	 -34.342500	-12.652500	0.000000
523	 1	 -34.342500	-14.460000	1.807500
524	 1	 -36.150000	-12.652500	1.807500
525	 1	 -36.150000	-14.460000	3.615000
526	 1	 -34.342500	-12.652500	3.615000
527	 1	 -34.342500	-14.460000	5.422500
528	 1	 -36.150000	-12.652500	5.422500
529	 1	 -36.150000	-14.460000	7.230000
530	 1	 -34.342500	-12.652500	7.230000
531	 1	 -34.342500	-14.460000	9.037500
532	 1	 -36.150000	-12.652500	9.037500
533	 1	 -36.150000	-14.460000	10.845000
534	 1	 -34.342500	-12.652500	10.845000
535	 1	 -34.342500	-14.460000	12.652500
536	 1	 -36.150000	-12.652500	12.652500
537	 1	 -36.150000	-14.460000	14.460000
538	 1	 -34.342500	-12.652500	14.460000
539	 1	 -34.342500	-14.460000	16.267500
540	 1	 -36.150000	-12.652500	16.267500
541	 1	 -36.150000	-14.460000	18.075000
542	 1	 -34.342500	-12.652500	18.075000
543	 1	 -34.342500	-14.460000	19.882500
544	 1	 -36.150000	-12.652500	19.882500
545	 1	 -36.150000	-14.460000	21.690000
546	 1	 -34.342500	-12.652500	21.690000
547	 1	 -34.342500	-14.460000	23.497500
548	 1	 -36.150000	-12.652500	23.497500
549	 1	 -36.150000	-14.460000	25.305000
550	 1	 -34.342500	-12.652500	25.305000
551	 1	 -34.342500	-14.460000	27.112500
552	 1	 -36.150000	-12.652500	27.112500
553	 1	 -36.150000	-14.460000	28.920000
554	 1	 -34.342500	-12.652500	28.920000
555	 1	 -34.342500	-14.460000	30.727500
556	 1	 -36.150000	-12.652500	30.727500
557	 1	 -36.150000	-14.460000	32.535000
558	 1	 -34.342500	-12.652500	32.535000
559	 1	 -34.342500	-14.460000	34.342500
560	 1	 -36.150000	-12.652500	34.342500
561	 1	 -36.150000	-10.845000	-36.150000
562	 1	 -34.342500	-9.037500	-36.150000
563	 1	 -34.342500	-10.845000	-34.342500
564	 1	 -36.150000	-9.037500	-34.342500
565	 1	 -36.150000	-10.845000	-32.535000
566	 1	 -34.342500	-9.037500	-32.535000
567	 1	 -34.342500	-10.845000	-30.727500
568	 1	 -36.150000	-9.037500	-30.727500
569	 1	 -36.150000	-10.845000	-28.920000
570	 1	 -34.342500	-9.037500	-28.920000
571	 1	 -34.342500	-10.845000	-27.112500
572	 1	 -36.150000	-9.037500	-27.112500
573	 1	 -36.150000	-10.845000	-25.305000
574	 1	 -34.342500	-9.037500	-25.305000
575	 1	 -34.342500	-10.845000	-23.497500
576	 1	 -36.150000	-9.037500	-23.497500
577	 1	 -36.150000	-10.845000	-21.690000
578	 1	 -34.342500	-9.037500	-21.690000
579	 1	 -34.342500	-10.845000	-19.882500
580	 1	 -36.150000	-9.037500	-19.882500
581	 1	 -36.150000	-10.845000	-18.075000
582	 1	 -34.342500	-9.037500	-18.075000
583	 1	 -34.342500	-10.845000	-16.267500
584	 1	 -36.150000	-9.037500	-16.267500
585	 1	 -36.150000	-10.845000	-14.460000
586	 1	 -34.342500	-9.037500	-14.460000
587	 1	 -34.342500	-10.845000	-12.652500
588	 1	 -36.150000	-9.037500	-12.652500
589	 1	 -36.150000	-10.845000	-10.845000
590	 1	 -34.342500	-9.037500	-10.845000
591	 1	 -34.342500	-10.845000	-9.037500
592	 1	 -36.150000	-9.037500	-9.037500
593	 1	 -36.150000	-10.845000	-7.230000
594	 1	 -34.342500	-9.037500	-7.230000
595	 1	 -34.342500	-10.845000	-5.422500
596	 1	 -36.150000	-9.037500	-5.422500
597	 1	 -36.150000	-10.845000	-3.615000
598	 1	 -34.342500	-9.037500	-3.615000
599	 1	 -34.342500	-10.845000	-1.807500
600	 1	 -36.150000	-9.037500	-1.807500
601	 1	 -36.150000	-10.845000	0.000000
602	 1	 -34.342500	-9.037500	0.000000
603	 1	 -34.342500	-10.845000	1.807500
604	 1	 -36.150000	-9.037500	1.807500
605	 1	 -36.150000	-10.845000	3.615000
606	 1	 -34.342500	-9.037500	3.615000
607	 1	 -34.342500	-10.845000	5.422500
608	 1	 -36.150000	-9.037500	5.422500
609	 1	 -36.150000	-10.845000	7.230000
610	 1	 -34.342500	-9.037500	7.230000
611	 1	 -34.342500	-10.845000	9.037500
612	 1	 -36.150000	-9.037500	9.037500
613	 1	 -36.150000	-10.845000	10.845000
614	 1	 -34.342500	-9.037500	10.845000
615	 1	 -34.342500	-10.845000	12.652500
616	 1	 -36.150000	-9.037500	12.652500
617	 1	 -36.150000	-10.845000	14.460000
618	 1	 -34.342500	-9.037500	14.460000
619	 1	 -34.342500	-10.845000	16.267500
620	 1	 -36.150000	-9.037500	16.267500
621	 1	 -36.150000	-10.845000	18.075000
622	 1	 -34.342500	-9.037500	18.075000
623	 1	 -34.342500	-10.845000	19.882500
624	 1	 -36.150000	-9.037500	19.882500
625	 1	 -36.150000	-10.845000	21.690000
626	 1	 -34.342500	-9.037500	21.690000
627	 1	 -34.342500	-10.845000	23.497500
628	 1	 -36.150000	-9.037500	23.497500
629	 1	 -36.150000	-10.845000	25.305000
630	 1	 -34.342500	-9.037500	25.305000
631	 1	 -34.342500	-10.845000	27.112500
632	 1	 -36.150000	-9.037500	27.112500
633	 1	 -36.150000	-10.845000	28.920000
634	 1	 -34.342500	-9.037500	28.920000
635	 1	 -34.342500	-10.845000	30.727500
636	 1	 -36.150000	-9.037500	30.727500
637	 1	 -36.150000	-10.845000	32.535000
638	 1	 -34.342500	-9.037500	32.535000
639	 1	 -34.342500	-10.845000	34.342500
640	 1	 -36.150000	-9.037500	34.342500
641	 1	 -36.150000	-7.230000	-36.150000
642	 1	 -34.342500	-5.422500	-36.150000
643	 1	 -34.342500	-7.230000	-34.342500
644	 1	 -36.150000	-5.422500	-34.342500
645	 1	 -36.150000	-7.230000	-32.535000
646	 1	 -34.342500	-5.422500	-32.535000
647	 1	 -34.342500	-7.230000	-30.727500
648	 1	 -36.150000	-5.422500	-30.727500
649	 1	 -36.150000	-7.230000	-28.920000
650	 1	 -34.342500	-5.422500	-28.920000
651	 1	 -34.342500	-7.230000	-27.112500
652	 1	 -36.150000	-5.422500	-27.112500
653	 1	 -36.150000	-7.230000	-25.305000
654	 1	 -34.342500	-5.422500	-25.305000
655	 1	 -34.342500	-7.230000	-23.497500
656	 1	 -36.150000	-5.422500	-23.497500
657	 1	 -36.150000	-7.230000	-21.690000
658	 1	 -34.342500	-5.422500	-21.690000
659	 1	 -34.342500	-7.230000	-19.882500
660	 1	 -36.150000	-5.422500	-19.882500
661	 1	 -36.150000	-7.230000	-18.075000
662	 1	 -34.342500	-5.422500	-18.075000
663	 1	 -34.342500	-7.230000	-16.267500
664	 1	 -36.150000	-5.422500	-16.267500
665	 1	 -36.150000	-7.230000	-14.460000
666	 1	 -34.342500	-5.422500	-14.460000
667	 1	 -34.342500	-7.230000	-12.652500
668	 1	 -36.150000	-5.422500	-12.652500
669	 1	 -36.150000	-7.230000	-10.845000
670	 1	 -34.342500	-5.422500	-10.845000
671	 1	 -34.342500	-7.230000	-9.037500
672	 1	 -36.150000	-5.422500	-9.037500
673	 1	 -36.150000	-7.230000	-7.230000
674	 1	 -34.342500	-5.422500	-7.230000
675	 1	 -34.342500	-7.230000	-5.422500
676	 1	 -36.150000	-5.422500	-5.422500
677	 1	 -36.150000	-7.230000	-3.615000
678	 1	 -34.342500	-5.422500	-3.615000
679	 1	 -34.342500	-7.230000	-1.807500
680	 1	 -36.150000	-5.422500	-1.807500
681	 1	 -36.150000	-7.230000	0.000000
682	 1	 -34.342500	-5.422500	0.000000
683	 1	 -34.342500	-7.230000	1.807500
684	 1	 -36.150000	-5.422500	1.807500
685	 1	 -36.150000	-7.230000	3.615000
686	 1	 -34.342500	-5.422500	3.615000
687	 1	 -34.342500	-7.230000	5.422500
688	 1	 -36.150000	-5.422500	5.422500
689	 1	 -36.150000	-7.230000	7.230000
690	 1	 -34.342500	-5.422500	7.230000
691	 1	 -34.342500	-7.230000	9.037500
692	 1	 -36.150000	-5.422500	9.037500
693	 1	 -36.150000	-7.230000	10.845000
694	 1	 -34.342500	-5.422500	10.845000
695	 1	 -34.342500	-7.230000	12.652500
696	 1	 -36.150000	-5.422500	12.652500
697	 1	 -36.150000	-7.230000	14.460000
698	 1	 -34.342500	-5.422500	14.460000
699	 1	 -34.342500	-7.230000	16.267500
700	 1	 -36.150000	-5.422500	16.267500
701	 1	 -36.150000	-7.230000	18.075000
702	 1	 -34.342500	-5.422500	18.075000
703	 1	 -34.342500	-7.230000	19.882500
704	 1	 -36.150000	-5.422500	19.882500
705	 1	 -36.150000	-7.230000	21.690000
706	 1	 -34.342500	-5.422500	21.690000
707	 1	 -34.342500	-7.230000	23.497500
708	 1	 -36.150000	-5.422500	23.497500
709	 1	 -36.150000	-7.230000	25.305000
710	 1	 -34.342500	-5.422500	25.305000
711	 1	 -34.342500	-7.230000	27.112500
712	 1	 -36.150000	-5.422500	27.112500
713	 1	 -36.150000	-7.230000	28.920000
714	 1	 -34.342500	-5.422500	28.920000
715	 1	 -34.342500	-7.230000	30.727500
716	 1	 -36.150000	-5.422500	30.727500
717	 1	 -36.150000	-7.230000	32.535000
718	 1	 -34.342500	-5.422500	32.535000
719	 1	 -34.342500	-7.230000	34.342500
720	 1	 -36.150000	-5.422500	34.342500
721	 1	 -36.150000	-3.615000	-36.150000
722	 1	 -34.342500	-1.807500	-36.150000
723	 1	 -34.342500	-3.615000	-34.342500
724	 1	 -36.150000	-1.807500	-34.342500
725	 1	 -36.150000	-3.615000	-32.535000
726	 1	 -34.342500	-1.807500	-32.535000
727	 1	 -34.342500	-3.615000	-30.727500
728	 1	 -36.150000	-1.807500	-30.727500
729	 1	 -36.150000	-3.615000	-28.920000
730	 1	 -34.342500	-1.807500	-28.920000
731	 1	 -34.342500	-3.615000	-27.112500
732	 1	 -36.150000	-1.807500	-27.112500
733	 1	 -36.150000	-3.615000	-25.305000
734	 1	 -34.342500	-1.807500	-25.305000
735	 1	 -34.342500	-3.615000	-23.497500
736	 1	 -36.150000	-1.807500	-23.497500
737	 1	 -36.150000	-3.615000	-21.690000
738	 1	 -34.342500	-1.807500	-21.690000
739	 1	 -34.342500	-3.615000	-19.882500
740	 1	 -36.150000	-1.807500	-19.882500
741	 1	 -36.150000	-3.615000	-18.075000
742	 1	 -34.342500	-1.807500	-18.075000
743	 1	 -34.342500	-3.615000	-16.267500
744	 1	 -36.150000	-1.807500	-16.267500
745	 1	 -36.150000	-3.615000	-14.460000
746	 1	 -34.342500	-1.807500	-14.460000
747	 1	 -34.342500	-3.615000	-12.652500