Position data for Ni File

32000 atoms
1 atom types
-36.150000	36.150000	 xlo xhi
-36.150000	36.150000	 ylo yhi
-36.150000	36.150000	 zlo zhi
0.0 0.0 0.0 xy xz yz

Atoms

1	 1	 -34.842287	-35.650213	-36.150000
2	 1	 -33.038065	-33.839435	-36.150000
3	 1	 -33.025220	-35.637226	-34.342500
4	 1	 -34.855274	-33.852280	-34.342500
5	 1	 -34.842287	-35.650213	-32.535000
6	 1	 -33.038065	-33.839435	-32.535000
7	 1	 -33.025220	-35.637226	-30.727500
8	 1	 -34.855274	-33.852280	-30.727500
9	 1	 -34.842287	-35.650213	-28.920000
10	 1	 -33.038065	-33.839435	-28.920000
11	 1	 -33.025220	-35.637226	-27.112500
12	 1	 -34.855274	-33.852280	-27.112500
13	 1	 -34.842287	-35.650213	-25.305000
14	 1	 -33.038065	-33.839435	-25.305000
15	 1	 -33.025220	-35.637226	-23.497500
16	 1	 -34.855274	-33.852280	-23.497500
17	 1	 -34.842287	-35.650213	-21.690000
18	 1	 -33.038065	-33.839435	-21.690000
19	 1	 -33.025220	-35.637226	-19.882500
20	 1	 -34.855274	-33.852280	-19.882500
21	 1	 -34.842287	-35.650213	-18.075000
22	 1	 -33.038065	-33.839435	-18.075000
23	 1	 -33.025220	-35.637226	-16.267500
24	 1	 -34.855274	-33.852280	-16.267500
25	 1	 -34.842287	-35.650213	-14.460000
26	 1	 -33.038065	-33.839435	-14.460000
27	 1	 -33.025220	-35.637226	-12.652500
28	 1	 -34.855274	-33.852280	-12.652500
29	 1	 -34.842287	-35.650213	-10.845000
30	 1	 -33.038065	-33.839435	-10.845000
31	 1	 -33.025220	-35.637226	-9.037500
32	 1	 -34.855274	-33.852280	-9.037500
33	 1	 -34.842287	-35.650213	-7.230000
34	 1	 -33.038065	-33.839435	-7.230000
35	 1	 -33.025220	-35.637226	-5.422500
36	 1	 -34.855274	-33.852280	-5.422500
37	 1	 -34.842287	-35.650213	-3.615000
38	 1	 -33.038065	-33.839435	-3.615000
39	 1	 -33.025220	-35.637226	-1.807500
40	 1	 -34.855274	-33.852280	-1.807500
41	 1	 -34.842287	-35.650213	0.000000
42	 1	 -33.038065	-33.839435	0.000000
43	 1	 -33.025220	-35.637226	1.807500
44	 1	 -34.855274	-33.852280	1.807500
45	 1	 -34.842287	-35.650213	3.615000
46	 1	 -33.038065	-33.839435	3.615000
47	 1	 -33.025220	-35.637226	5.422500
48	 1	 -34.855274	-33.852280	5.422500
49	 1	 -34.842287	-35.650213	7.230000
50	 1	 -33.038065	-33.839435	7.230000
51	 1	 -33.025220	-35.637226	9.037500
52	 1	 -34.855274	-33.852280	9.037500
53	 1	 -34.842287	-35.650213	10.845000
54	 1	 -33.038065	-33.839435	10.845000
55	 1	 -33.025220	-35.637226	12.652500
56	 1	 -34.855274	-33.852280	12.652500
57	 1	 -34.842287	-35.650213	14.460000
58	 1	 -33.038065	-33.839435	14.460000
59	 1	 -33.025220	-35.637226	16.267500
60	 1	 -34.855274	-33.852280	16.267500
61	 1	 -34.842287	-35.650213	18.075000
62	 1	 -33.038065	-33.839435	18.075000
63	 1	 -33.025220	-35.637226	19.882500
64	 1	 -34.855274	-33.852280	19.882500
65	 1	 -34.842287	-35.650213	21.690000
66	 1	 -33.038065	-33.839435	21.690000
67	 1	 -33.025220	-35.637226	23.497500
68	 1	 -34.855274	-33.852280	23.497500
69	 1	 -34.842287	-35.650213	25.305000
70	 1	 -33.038065	-33.839435	25.305000
71	 1	 -33.025220	-35.637226	27.112500
72	 1	 -34.855274	-33.852280	27.112500
73	 1	 -34.842287	-35.650213	28.920000
74	 1	 -33.038065	-33.839435	28.920000
75	 1	 -33.025220	-35.637226	30.727500
76	 1	 -34.855274	-33.852280	30.727500
77	 1	 -34.842287	-35.650213	32.535000
78	 1	 -33.038065	-33.839435	32.535000
79	 1	 -33.025220	-35.637226	34.342500
80	 1	 -34.855274	-33.852280	34.342500
81	 1	 -34.868990	-32.054609	-36.150000
82	 1	 -33.066067	-30.244746	-36.150000
83	 1	 -33.051667	-32.041947	-34.342500
84	 1	 -34.883468	-30.257181	-34.342500
85	 1	 -34.868990	-32.054609	-32.535000
86	 1	 -33.066067	-30.244746	-32.535000
87	 1	 -33.051667	-32.041947	-30.727500
88	 1	 -34.883468	-30.257181	-30.727500
89	 1	 -34.868990	-32.054609	-28.920000
90	 1	 -33.066067	-30.244746	-28.920000
91	 1	 -33.051667	-32.041947	-27.112500
92	 1	 -34.883468	-30.257181	-27.112500
93	 1	 -34.868990	-32.054609	-25.305000
94	 1	 -33.066067	-30.244746	-25.305000
95	 1	 -33.051667	-32.041947	-23.497500
96	 1	 -34.883468	-30.257181	-23.497500
97	 1	 -34.868990	-32.054609	-21.690000
98	 1	 -33.066067	-30.244746	-21.690000
99	 1	 -33.051667	-32.041947	-19.882500
100	 1	 -34.883468	-30.257181	-19.882500
101	 1	 -34.868990	-32.054609	-18.075000
102	 1	 -33.066067	-30.244746	-18.075000
103	 1	 -33.051667	-32.041947	-16.267500
104	 1	 -34.883468	-30.257181	-16.267500
105	 1	 -34.868990	-32.054609	-14.460000
106	 1	 -33.066067	-30.244746	-14.460000
107	 1	 -33.051667	-32.041947	-12.652500
108	 1	 -34.883468	-30.257181	-12.652500
109	 1	 -34.868990	-32.054609	-10.845000
110	 1	 -33.066067	-30.244746	-10.845000
111	 1	 -33.051667	-32.041947	-9.037500
112	 1	 -34.883468	-30.257181	-9.037500
113	 1	 -34.868990	-32.054609	-7.230000
114	 1	 -33.066067	-30.244746	-7.230000
115	 1	 -33.051667	-32.041947	-5.422500
116	 1	 -34.883468	-30.257181	-5.422500
117	 1	 -34.868990	-32.054609	-3.615000
118	 1	 -33.066067	-30.244746	-3.615000
119	 1	 -33.051667	-32.041947	-1.807500
120	 1	 -34.883468	-30.257181	-1.807500
121	 1	 -34.868990	-32.054609	0.000000
122	 1	 -33.066067	-30.244746	0.000000
123	 1	 -33.051667	-32.041947	1.807500
124	 1	 -34.883468	-30.257181	1.807500
125	 1	 -34.868990	-32.054609	3.615000
126	 1	 -33.066067	-30.244746	3.615000
127	 1	 -33.051667	-32.041947	5.422500
128	 1	 -34.883468	-30.257181	5.422500
129	 1	 -34.868990	-32.054609	7.230000
130	 1	 -33.066067	-30.244746	7.230000
131	 1	 -33.051667	-32.041947	9.037500
132	 1	 -34.883468	-30.257181	9.037500
133	 1	 -34.868990	-32.054609	10.845000
134	 1	 -33.066067	-30.244746	10.845000
135	 1	 -33.051667	-32.041947	12.652500
136	 1	 -34.883468	-30.257181	12.652500
137	 1	 -34.868990	-32.054609	14.460000
138	 1	 -33.066067	-30.244746	14.460000
139	 1	 -33.051667	-32.041947	16.267500
140	 1	 -34.883468	-30.257181	16.267500
141	 1	 -34.868990	-32.054609	18.075000
142	 1	 -33.066067	-30.244746	18.075000
143	 1	 -33.051667	-32.041947	19.882500
144	 1	 -34.883468	-30.257181	19.882500
145	 1	 -34.868990	-32.054609	21.690000
146	 1	 -33.066067	-30.244746	21.690000
147	 1	 -33.051667	-32.041947	23.497500
148	 1	 -34.883468	-30.257181	23.497500
149	 1	 -34.868990	-32.054609	25.305000
150	 1	 -33.066067	-30.244746	25.305000
151	 1	 -33.051667	-32.041947	27.112500
152	 1	 -34.883468	-30.257181	27.112500
153	 1	 -34.868990	-32.054609	28.920000
154	 1	 -33.066067	-30.244746	28.920000
155	 1	 -33.051667	-32.041947	30.727500
156	 1	 -34.883468	-30.257181	30.727500
157	 1	 -34.868990	-32.054609	32.535000
158	 1	 -33.066067	-30.244746	32.535000
159	 1	 -33.051667	-32.041947	34.342500
160	 1	 -34.883468	-30.257181	34.342500
161	 1	 -34.898741	-28.459972	-36.150000
162	 1	 -33.097415	-26.651106	-36.150000
163	 1	 -33.081304	-28.447809	-34.342500
164	 1	 -34.914838	-26.662950	-34.342500
165	 1	 -34.898741	-28.459972	-32.535000
166	 1	 -33.097415	-26.651106	-32.535000
167	 1	 -33.081304	-28.447809	-30.727500
168	 1	 -34.914838	-26.662950	-30.727500
169	 1	 -34.898741	-28.459972	-28.920000
170	 1	 -33.097415	-26.651106	-28.920000
171	 1	 -33.081304	-28.447809	-27.112500
172	 1	 -34.914838	-26.662950	-27.112500
173	 1	 -34.898741	-28.459972	-25.305000
174	 1	 -33.097415	-26.651106	-25.305000
175	 1	 -33.081304	-28.447809	-23.497500
176	 1	 -34.914838	-26.662950	-23.497500
177	 1	 -34.898741	-28.459972	-21.690000
178	 1	 -33.097415	-26.651106	-21.690000
179	 1	 -33.081304	-28.447809	-19.882500
180	 1	 -34.914838	-26.662950	-19.882500
181	 1	 -34.898741	-28.459972	-18.075000
182	 1	 -33.097415	-26.651106	-18.075000
183	 1	 -33.081304	-28.447809	-16.267500
184	 1	 -34.914838	-26.662950	-16.267500
185	 1	 -34.898741	-28.459972	-14.460000
186	 1	 -33.097415	-26.651106	-14.460000
187	 1	 -33.081304	-28.447809	-12.652500
188	 1	 -34.914838	-26.662950	-12.652500
189	 1	 -34.898741	-28.459972	-10.845000
190	 1	 -33.097415	-26.651106	-10.845000
191	 1	 -33.081304	-28.447809	-9.037500
192	 1	 -34.914838	-26.662950	-9.037500
193	 1	 -34.898741	-28.459972	-7.230000
194	 1	 -33.097415	-26.651106	-7.230000
195	 1	 -33.081304	-28.447809	-5.422500
196	 1	 -34.914838	-26.662950	-5.422500
197	 1	 -34.898741	-28.459972	-3.615000
198	 1	 -33.097415	-26.651106	-3.615000
199	 1	 -33.081304	-28.447809	-1.807500
200	 1	 -34.914838	-26.662950	-1.807500
201	 1	 -34.898741	-28.459972	0.000000
202	 1	 -33.097415	-26.651106	0.000000
203	 1	 -33.081304	-28.447809	1.807500
204	 1	 -34.914838	-26.662950	1.807500
205	 1	 -34.898741	-28.459972	3.615000
206	 1	 -33.097415	-26.651106	3.615000
207	 1	 -33.081304	-28.447809	5.422500
208	 1	 -34.914838	-26.662950	5.422500
209	 1	 -34.898741	-28.459972	7.230000
210	 1	 -33.097415	-26.651106	7.230000
211	 1	 -33.081304	-28.447809	9.037500
212	 1	 -34.914838	-26.662950	9.037500
213	 1	 -34.898741	-28.459972	10.845000
214	 1	 -33.097415	-26.651106	10.845000
215	 1	 -33.081304	-28.447809	12.652500
216	 1	 -34.914838	-26.662950	12.652500
217	 1	 -34.898741	-28.459972	14.460000
218	 1	 -33.097415	-26.651106	14.460000
219	 1	 -33.081304	-28.447809	16.267500
220	 1	 -34.914838	-26.662950	16.267500
221	 1	 -34.898741	-28.459972	18.075000
222	 1	 -33.097415	-26.651106	18.075000
223	 1	 -33.081304	-28.447809	19.882500
224	 1	 -34.914838	-26.662950	19.882500
225	 1	 -34.898741	-28.459972	21.690000
226	 1	 -33.097415	-26.651106	21.690000
227	 1	 -33.081304	-28.447809	23.497500
228	 1	 -34.914838	-26.662950	23.497500
229	 1	 -34.898741	-28.459972	25.305000
230	 1	 -33.097415	-26.651106	25.305000
231	 1	 -33.081304	-28.447809	27.112500
232	 1	 -34.914838	-26.662950	27.112500
233	 1	 -34.898741	-28.459972	28.920000
234	 1	 -33.097415	-26.651106	28.920000
235	 1	 -33.081304	-28.447809	30.727500
236	 1	 -34.914838	-26.662950	30.727500
237	 1	 -34.898741	-28.459972	32.535000
238	 1	 -33.097415	-26.651106	32.535000
239	 1	 -33.081304	-28.447809	34.342500
240	 1	 -34.914838	-26.662950	34.342500
241	 1	 -34.931783	-24.866076	-36.150000
242	 1	 -33.132385	-23.058247	-36.150000
243	 1	 -33.114433	-24.854601	-34.342500
244	 1	 -34.949595	-23.069306	-34.342500
245	 1	 -34.931783	-24.866076	-32.535000
246	 1	 -33.132385	-23.058247	-32.535000
247	 1	 -33.114433	-24.854601	-30.727500
248	 1	 -34.949595	-23.069306	-30.727500
249	 1	 -34.931783	-24.866076	-28.920000
250	 1	 -33.132385	-23.058247	-28.920000
251	 1	 -33.114433	-24.854601	-27.112500
252	 1	 -34.949595	-23.069306	-27.112500
253	 1	 -34.931783	-24.866076	-25.305000
254	 1	 -33.132385	-23.058247	-25.305000
255	 1	 -33.114433	-24.854601	-23.497500
256	 1	 -34.949595	-23.069306	-23.497500
257	 1	 -34.931783	-24.866076	-21.690000
258	 1	 -33.132385	-23.058247	-21.690000
259	 1	 -33.114433	-24.854601	-19.882500
260	 1	 -34.949595	-23.069306	-19.882500
261	 1	 -34.931783	-24.866076	-18.075000
262	 1	 -33.132385	-23.058247	-18.075000
263	 1	 -33.114433	-24.854601	-16.267500
264	 1	 -34.949595	-23.069306	-16.267500
265	 1	 -34.931783	-24.866076	-14.460000
266	 1	 -33.132385	-23.058247	-14.460000
267	 1	 -33.114433	-24.854601	-12.652500
268	 1	 -34.949595	-23.069306	-12.652500
269	 1	 -34.931783	-24.866076	-10.845000
270	 1	 -33.132385	-23.058247	-10.845000
271	 1	 -33.114433	-24.854601	-9.037500
272	 1	 -34.949595	-23.069306	-9.037500
273	 1	 -34.931783	-24.866076	-7.230000
274	 1	 -33.132385	-23.058247	-7.230000
275	 1	 -33.114433	-24.854601	-5.422500
276	 1	 -34.949595	-23.069306	-5.422500
277	 1	 -34.931783	-24.866076	-3.615000
278	 1	 -33.132385	-23.058247	-3.615000
279	 1	 -33.114433	-24.854601	-1.807500
280	 1	 -34.949595	-23.069306	-1.807500
281	 1	 -34.931783	-24.866076	0.000000
282	 1	 -33.132385	-23.058247	0.000000
283	 1	 -33.114433	-24.854601	1.807500
284	 1	 -34.949595	-23.069306	1.807500
285	 1	 -34.931783	-24.866076	3.615000
286	 1	 -33.132385	-23.058247	3.615000
287	 1	 -33.114433	-24.854601	5.422500
288	 1	 -34.949595	-23.069306	5.422500
289	 1	 -34.931783	-24.866076	7.230000
290	 1	 -33.132385	-23.058247	7.230000
291	 1	 -33.114433	-24.854601	9.037500
292	 1	 -34.949595	-23.069306	9.037500
293	 1	 -34.931783	-24.866076	10.845000
294	 1	 -33.132385	-23.058247	10.845000
295	 1	 -33.114433	-24.854601	12.652500
296	 1	 -34.949595	-23.069306	12.652500
297	 1	 -34.931783	-24.866076	14.460000
298	 1	 -33.132385	-23.058247	14.460000
299	 1	 -33.114433	-24.854601	16.267500
300	 1	 -34.949595	-23.069306	16.267500
301	 1	 -34.931783	-24.866076	18.075000
302	 1	 -33.132385	-23.058247	18.075000
303	 1	 -33.114433	-24.854601	19.882500
304	 1	 -34.949595	-23.069306	19.882500
305	 1	 -34.931783	-24.866076	21.690000
306	 1	 -33.132385	-23.058247	21.690000
307	 1	 -33.114433	-24.854601	23.497500
308	 1	 -34.949595	-23.069306	23.497500
309	 1	 -34.931783	-24.866076	25.305000
310	 1	 -33.132385	-23.058247	25.305000
311	 1	 -33.114433	-24.854601	27.112500
312	 1	 -34.949595	-23.069306	27.112500
313	 1	 -34.931783	-24.866076	28.920000
314	 1	 -33.132385	-23.058247	28.920000
315	 1	 -33.114433	-24.854601	30.727500
316	 1	 -34.949595	-23.069306	30.727500
317	 1	 -34.931783	-24.866076	32.535000
318	 1	 -33.132385	-23.058247	32.535000
319	 1	 -33.114433	-24.854601	34.342500
320	 1	 -34.949595	-23.069306	34.342500
321	 1	 -34.968281	-21.272585	-36.150000
322	 1	 -33.171148	-19.465769	-36.150000
323	 1	 -33.151287	-21.261991	-34.342500
324	 1	 -34.987842	-19.475853	-34.342500
325	 1	 -34.968281	-21.272585	-32.535000
326	 1	 -33.171148	-19.465769	-32.535000
327	 1	 -33.151287	-21.261991	-30.727500
328	 1	 -34.987842	-19.475853	-30.727500
329	 1	 -34.968281	-21.272585	-28.920000
330	 1	 -33.171148	-19.465769	-28.920000
331	 1	 -33.151287	-21.261991	-27.112500
332	 1	 -34.987842	-19.475853	-27.112500
333	 1	 -34.968281	-21.272585	-25.305000
334	 1	 -33.171148	-19.465769	-25.305000
335	 1	 -33.151287	-21.261991	-23.497500
336	 1	 -34.987842	-19.475853	-23.497500
337	 1	 -34.968281	-21.272585	-21.690000
338	 1	 -33.171148	-19.465769	-21.690000
339	 1	 -33.151287	-21.261991	-19.882500
340	 1	 -34.987842	-19.475853	-19.882500
341	 1	 -34.968281	-21.272585	-18.075000
342	 1	 -33.171148	-19.465769	-18.075000
343	 1	 -33.151287	-21.261991	-16.267500
344	 1	 -34.987842	-19.475853	-16.267500
345	 1	 -34.968281	-21.272585	-14.460000
346	 1	 -33.171148	-19.465769	-14.460000
347	 1	 -33.151287	-21.261991	-12.652500
348	 1	 -34.987842	-19.475853	-12.652500
349	 1	 -34.968281	-21.272585	-10.845000
350	 1	 -33.171148	-19.465769	-10.845000
351	 1	 -33.151287	-21.261991	-9.037500
352	 1	 -34.987842	-19.475853	-9.037500
353	 1	 -34.968281	-21.272585	-7.230000
354	 1	 -33.171148	-19.465769	-7.230000
355	 1	 -33.151287	-21.261991	-5.422500
356	 1	 -34.987842	-19.475853	-5.422500
357	 1	 -34.968281	-21.272585	-3.615000
358	 1	 -33.171148	-19.465769	-3.615000
359	 1	 -33.151287	-21.261991	-1.807500
360	 1	 -34.987842	-19.475853	-1.807500
361	 1	 -34.968281	-21.272585	0.000000
362	 1	 -33.171148	-19.465769	0.000000
363	 1	 -33.151287	-21.261991	1.807500
364	 1	 -34.987842	-19.475853	1.807500
365	 1	 -34.968281	-21.272585	3.615000
366	 1	 -33.171148	-19.465769	3.615000
367	 1	 -33.151287	-21.261991	5.422500
368	 1	 -34.987842	-19.475853	5.422500
369	 1	 -34.968281	-21.272585	7.230000
370	 1	 -33.171148	-19.465769	7.230000
371	 1	 -33.151287	-21.261991	9.037500
372	 1	 -34.987842	-19.475853	9.037500
373	 1	 -34.968281	-21.272585	10.845000
374	 1	 -33.171148	-19.465769	10.845000
375	 1	 -33.151287	-21.261991	12.652500
376	 1	 -34.987842	-19.475853	12.652500
377	 1	 -34.968281	-21.272585	14.460000
378	 1	 -33.171148	-19.465769	14.460000
379	 1	 -33.151287	-21.261991	16.267500
380	 1	 -34.987842	-19.475853	16.267500
381	 1	 -34.968281	-21.272585	18.075000
382	 1	 -33.171148	-19.465769	18.075000
383	 1	 -33.151287	-21.261991	19.882500
384	 1	 -34.987842	-19.475853	19.882500
385	 1	 -34.968281	-21.272585	21.690000
386	 1	 -33.171148	-19.465769	21.690000
387	 1	 -33.151287	-21.261991	23.497500
388	 1	 -34.987842	-19.475853	23.497500
389	 1	 -34.968281	-21.272585	25.305000
390	 1	 -33.171148	-19.465769	25.305000
391	 1	 -33.151287	-21.261991	27.112500
392	 1	 -34.987842	-19.475853	27.112500
393	 1	 -34.968281	-21.272585	28.920000
394	 1	 -33.171148	-19.465769	28.920000
395	 1	 -33.151287	-21.261991	30.727500
396	 1	 -34.987842	-19.475853	30.727500
397	 1	 -34.968281	-21.272585	32.535000
398	 1	 -33.171148	-19.465769	32.535000
399	 1	 -33.151287	-21.261991	34.342500
400	 1	 -34.987842	-19.475853	34.342500
401	 1	 -35.008264	-17.679042	-36.150000
402	 1	 -33.213706	-15.873127	-36.150000
403	 1	 -33.191962	-17.669508	-34.342500
404	 1	 -35.029517	-15.882077	-34.342500
405	 1	 -35.008264	-17.679042	-32.535000
406	 1	 -33.213706	-15.873127	-32.535000
407	 1	 -33.191962	-17.669508	-30.727500
408	 1	 -35.029517	-15.882077	-30.727500
409	 1	 -35.008264	-17.679042	-28.920000
410	 1	 -33.213706	-15.873127	-28.920000
411	 1	 -33.191962	-17.669508	-27.112500
412	 1	 -35.029517	-15.882077	-27.112500
413	 1	 -35.008264	-17.679042	-25.305000
414	 1	 -33.213706	-15.873127	-25.305000
415	 1	 -33.191962	-17.669508	-23.497500
416	 1	 -35.029517	-15.882077	-23.497500
417	 1	 -35.008264	-17.679042	-21.690000
418	 1	 -33.213706	-15.873127	-21.690000
419	 1	 -33.191962	-17.669508	-19.882500
420	 1	 -35.029517	-15.882077	-19.882500
421	 1	 -35.008264	-17.679042	-18.075000
422	 1	 -33.213706	-15.873127	-18.075000
423	 1	 -33.191962	-17.669508	-16.267500
424	 1	 -35.029517	-15.882077	-16.267500
425	 1	 -35.008264	-17.679042	-14.460000
426	 1	 -33.213706	-15.873127	-14.460000
427	 1	 -33.191962	-17.669508	-12.652500
428	 1	 -35.029517	-15.882077	-12.652500
429	 1	 -35.008264	-17.679042	-10.845000
430	 1	 -33.213706	-15.873127	-10.845000
431	 1	 -33.191962	-17.669508	-9.037500
432	 1	 -35.029517	-15.882077	-9.037500
433	 1	 -35.008264	-17.679042	-7.230000
434	 1	 -33.213706	-15.873127	-7.230000
435	 1	 -33.191962	-17.669508	-5.422500
436	 1	 -35.029517	-15.882077	-5.422500
437	 1	 -35.008264	-17.679042	-3.615000
438	 1	 -33.213706	-15.873127	-3.615000
439	 1	 -33.191962	-17.669508	-1.807500
440	 1	 -35.029517	-15.882077	-1.807500
441	 1	 -35.008264	-17.679042	0.000000
442	 1	 -33.213706	-15.873127	0.000000
443	 1	 -33.191962	-17.669508	1.807500
444	 1	 -35.029517	-15.882077	1.807500
445	 1	 -35.008264	-17.679042	3.615000
446	 1	 -33.213706	-15.873127	3.615000
447	 1	 -33.191962	-17.669508	5.422500
448	 1	 -35.029517	-15.882077	5.422500
449	 1	 -35.008264	-17.679042	7.230000
450	 1	 -33.213706	-15.873127	7.230000
451	 1	 -33.191962	-17.669508	9.037500
452	 1	 -35.029517	-15.882077	9.037500
453	 1	 -35.008264	-17.679042	10.845000
454	 1	 -33.213706	-15.873127	10.845000
455	 1	 -33.191962	-17.669508	12.652500
456	 1	 -35.029517	-15.882077	12.652500
457	 1	 -35.008264	-17.679042	14.460000
458	 1	 -33.213706	-15.873127	14.460000
459	 1	 -33.191962	-17.669508	16.267500
460	 1	 -35.029517	-15.882077	16.267500
461	 1	 -35.008264	-17.679042	18.075000
462	 1	 -33.213706	-15.873127	18.075000
463	 1	 -33.191962	-17.669508	19.882500
464	 1	 -35.029517	-15.882077	19.882500
465	 1	 -35.008264	-17.679042	21.690000
466	 1	 -33.213706	-15.873127	21.690000
467	 1	 -33.191962	-17.669508	23.497500
468	 1	 -35.029517	-15.882077	23.497500
469	 1	 -35.008264	-17.679042	25.305000
470	 1	 -33.213706	-15.873127	25.305000
471	 1	 -33.191962	-17.669508	27.112500
472	 1	 -35.029517	-15.882077	27.112500
473	 1	 -35.008264	-17.679042	28.920000
474	 1	 -33.213706	-15.873127	28.920000
475	 1	 -33.191962	-17.669508	30.727500
476	 1	 -35.029517	-15.882077	30.727500
477	 1	 -35.008264	-17.679042	32.535000
478	 1	 -33.213706	-15.873127	32.535000
479	 1	 -33.191962	-17.669508	34.342500
480	 1	 -35.029517	-15.882077	34.342500
481	 1	 -35.051556	-14.084877	-36.150000
482	 1	 -33.259798	-12.279645	-36.150000
483	 1	 -33.236339	-14.076538	-34.342500
484	 1	 -35.074315	-12.287358	-34.342500
485	 1	 -35.051556	-14.084877	-32.535000
486	 1	 -33.259798	-12.279645	-32.535000
487	 1	 -33.236339	-14.076538	-30.727500
488	 1	 -35.074315	-12.287358	-30.727500
489	 1	 -35.051556	-14.084877	-28.920000
490	 1	 -33.259798	-12.279645	-28.920000
491	 1	 -33.236339	-14.076538	-27.112500
492	 1	 -35.074315	-12.287358	-27.112500
493	 1	 -35.051556	-14.084877	-25.305000
494	 1	 -33.259798	-12.279645	-25.305000
495	 1	 -33.236339	-14.076538	-23.497500
496	 1	 -35.074315	-12.287358	-23.497500
497	 1	 -35.051556	-14.084877	-21.690000
498	 1	 -33.259798	-12.279645	-21.690000
499	 1	 -33.236339	-14.076538	-19.882500
500	 1	 -35.074315	-12.287358	-19.882500
501	 1	 -35.051556	-14.084877	-18.075000
502	 1	 -33.259798	-12.279645	-18.075000
503	 1	 -33.236339	-14.076538	-16.267500
504	 1	 -35.074315	-12.287358	-16.267500
505	 1	 -35.051556	-14.084877	-14.460000
506	 1	 -33.259798	-12.279645	-14.460000
507	 1	 -33.236339	-14.076538	-12.652500
508	 1	 -35.074315	-12.287358	-12.652500
509	 1	 -35.051556	-14.084877	-10.845000
510	 1	 -33.259798	-12.279645	-10.845000
511	 1	 -33.236339	-14.076538	-9.037500
512	 1	 -35.074315	-12.287358	-9.037500
513	 1	 -35.051556	-14.084877	-7.230000
514	 1	 -33.259798	-12.279645	-7.230000
515	 1	 -33.236339	-14.076538	-5.422500
516	 1	 -35.074315	-12.287358	-5.422500
517	 1	 -35.051556	-14.084877	-3.615000
518	 1	 -33.259798	-12.279645	-3.615000
519	 1	 -33.236339	-14.076538	-1.807500
520	 1	 -35.074315	-12.287358	-1.807500
521	 1	 -35.051556	-14.084877	0.000000
522	 1	 -33.259798	-12.279645	0.000000
523	 1	 -33.236339	-14.076538	1.807500
524	 1	 -35.074315	-12.287358	1.807500
525	 1	 -35.051556	-14.084877	3.615000
526	 1	 -33.259798	-12.279645	3.615000
527	 1	 -33.236339	-14.076538	5.422500
528	 1	 -35.074315	-12.287358	5.422500
529	 1	 -35.051556	-14.084877	7.230000
530	 1	 -33.259798	-12.279645	7.230000
531	 1	 -33.236339	-14.076538	9.037500
532	 1	 -35.074315	-12.287358	9.037500
533	 1	 -35.051556	-14.084877	10.845000
534	 1	 -33.259798	-12.279645	10.845000
535	 1	 -33.236339	-14.076538	12.652500
536	 1	 -35.074315	-12.287358	12.652500
537	 1	 -35.051556	-14.084877	14.460000
538	 1	 -33.259798	-12.279645	14.460000
539	 1	 -33.236339	-14.076538	16.267500
540	 1	 -35.074315	-12.287358	16.267500
541	 1	 -35.051556	-14.084877	18.075000
542	 1	 -33.259798	-12.279645	18.075000
543	 1	 -33.236339	-14.076538	19.882500
544	 1	 -35.074315	-12.287358	19.882500
545	 1	 -35.051556	-14.084877	21.690000
546	 1	 -33.259798	-12.279645	21.690000
547	 1	 -33.236339	-14.076538	23.497500
548	 1	 -35.074315	-12.287358	23.497500
549	 1	 -35.051556	-14.084877	25.305000
550	 1	 -33.259798	-12.279645	25.305000
551	 1	 -33.236339	-14.076538	27.112500
552	 1	 -35.074315	-12.287358	27.112500
553	 1	 -35.051556	-14.084877	28.920000
554	 1	 -33.259798	-12.279645	28.920000
555	 1	 -33.236339	-14.076538	30.727500
556	 1	 -35.074315	-12.287358	30.727500
557	 1	 -35.051556	-14.084877	32.535000
558	 1	 -33.259798	-12.279645	32.535000
559	 1	 -33.236339	-14.076538	34.342500
560	 1	 -35.074315	-12.287358	34.342500
561	 1	 -35.097710	-10.489434	-36.150000
562	 1	 -33.308823	-8.684561	-36.150000
563	 1	 -33.283997	-10.482352	-34.342500
564	 1	 -35.121633	-8.691021	-34.342500
565	 1	 -35.097710	-10.489434	-32.535000
566	 1	 -33.308823	-8.684561	-32.535000
567	 1	 -33.283997	-10.482352	-30.727500
568	 1	 -35.121633	-8.691021	-30.727500
569	 1	 -35.097710	-10.489434	-28.920000
570	 1	 -33.308823	-8.684561	-28.920000
571	 1	 -33.283997	-10.482352	-27.112500
572	 1	 -35.121633	-8.691021	-27.112500
573	 1	 -35.097710	-10.489434	-25.305000
574	 1	 -33.308823	-8.684561	-25.305000
575	 1	 -33.283997	-10.482352	-23.497500
576	 1	 -35.121633	-8.691021	-23.497500
577	 1	 -35.097710	-10.489434	-21.690000
578	 1	 -33.308823	-8.684561	-21.690000
579	 1	 -33.283997	-10.482352	-19.882500
580	 1	 -35.121633	-8.691021	-19.882500
581	 1	 -35.097710	-10.489434	-18.075000
582	 1	 -33.308823	-8.684561	-18.075000
583	 1	 -33.283997	-10.482352	-16.267500
584	 1	 -35.121633	-8.691021	-16.267500
585	 1	 -35.097710	-10.489434	-14.460000
586	 1	 -33.308823	-8.684561	-14.460000
587	 1	 -33.283997	-10.482352	-12.652500
588	 1	 -35.121633	-8.691021	-12.652500
589	 1	 -35.097710	-10.489434	-10.845000
590	 1	 -33.308823	-8.684561	-10.845000
591	 1	 -33.283997	-10.482352	-9.037500
592	 1	 -35.121633	-8.691021	-9.037500
593	 1	 -35.097710	-10.489434	-7.230000
594	 1	 -33.308823	-8.684561	-7.230000
595	 1	 -33.283997	-10.482352	-5.422500
596	 1	 -35.121633	-8.691021	-5.422500
597	 1	 -35.097710	-10.489434	-3.615000
598	 1	 -33.308823	-8.684561	-3.615000
599	 1	 -33.283997	-10.482352	-1.807500
600	 1	 -35.121633	-8.691021	-1.807500
601	 1	 -35.097710	-10.489434	0.000000
602	 1	 -33.308823	-8.684561	0.000000
603	 1	 -33.283997	-10.482352	1.807500
604	 1	 -35.121633	-8.691021	1.807500
605	 1	 -35.097710	-10.489434	3.615000
606	 1	 -33.308823	-8.684561	3.615000
607	 1	 -33.283997	-10.482352	5.422500
608	 1	 -35.121633	-8.691021	5.422500
609	 1	 -35.097710	-10.489434	7.230000
610	 1	 -33.308823	-8.684561	7.230000
611	 1	 -33.283997	-10.482352	9.037500
612	 1	 -35.121633	-8.691021	9.037500
613	 1	 -35.097710	-10.489434	10.845000
614	 1	 -33.308823	-8.684561	10.845000
615	 1	 -33.283997	-10.482352	12.652500
616	 1	 -35.121633	-8.691021	12.652500
617	 1	 -35.097710	-10.489434	14.460000
618	 1	 -33.308823	-8.684561	14.460000
619	 1	 -33.283997	-10.482352	16.267500
620	 1	 -35.121633	-8.691021	16.267500
621	 1	 -35.097710	-10.489434	18.075000
622	 1	 -33.308823	-8.684561	18.075000
623	 1	 -33.283997	-10.482352	19.882500
624	 1	 -35.121633	-8.691021	19.882500
625	 1	 -35.097710	-10.489434	21.690000
626	 1	 -33.308823	-8.684561	21.690000
627	 1	 -33.283997	-10.482352	23.497500
628	 1	 -35.121633	-8.691021	23.497500
629	 1	 -35.097710	-10.489434	25.305000
630	 1	 -33.308823	-8.684561	25.305000
631	 1	 -33.283997	-10.482352	27.112500
632	 1	 -35.121633	-8.691021	27.112500
633	 1	 -35.097710	-10.489434	28.920000
634	 1	 -33.308823	-8.684561	28.920000
635	 1	 -33.283997	-10.482352	30.727500
636	 1	 -35.121633	-8.691021	30.727500
637	 1	 -35.097710	-10.489434	32.535000
638	 1	 -33.308823	-8.684561	32.535000
639	 1	 -33.283997	-10.482352	34.342500
640	 1	 -35.121633	-8.691021	34.342500
641	 1	 -35.145957	-6.892039	-36.150000
642	 1	 -33.359786	-5.087117	-36.150000
643	 1	 -33.334140	-6.886178	-34.342500
644	 1	 -35.170533	-5.092417	-34.342500
645	 1	 -35.145957	-6.892039	-32.535000
646	 1	 -33.359786	-5.087117	-32.535000
647	 1	 -33.334140	-6.886178	-30.727500
648	 1	 -35.170533	-5.092417	-30.727500
649	 1	 -35.145957	-6.892039	-28.920000
650	 1	 -33.359786	-5.087117	-28.920000
651	 1	 -33.334140	-6.886178	-27.112500
652	 1	 -35.170533	-5.092417	-27.112500
653	 1	 -35.145957	-6.892039	-25.305000
654	 1	 -33.359786	-5.087117	-25.305000
655	 1	 -33.334140	-6.886178	-23.497500
656	 1	 -35.170533	-5.092417	-23.497500
657	 1	 -35.145957	-6.892039	-21.690000
658	 1	 -33.359786	-5.087117	-21.690000
659	 1	 -33.334140	-6.886178	-19.882500
660	 1	 -35.170533	-5.092417	-19.882500
661	 1	 -35.145957	-6.892039	-18.075000
662	 1	 -33.359786	-5.087117	-18.075000
663	 1	 -33.334140	-6.886178	-16.267500
664	 1	 -35.170533	-5.092417	-16.267500
665	 1	 -35.145957	-6.892039	-14.460000
666	 1	 -33.359786	-5.087117	-14.460000
667	 1	 -33.334140	-6.886178	-12.652500
668	 1	 -35.170533	-5.092417	-12.652500
669	 1	 -35.145957	-6.892039	-10.845000
670	 1	 -33.359786	-5.087117	-10.845000
671	 1	 -33.334140	-6.886178	-9.037500
672	 1	 -35.170533	-5.092417	-9.037500
673	 1	 -35.145957	-6.892039	-7.230000
674	 1	 -33.359786	-5.087117	-7.230000
675	 1	 -33.334140	-6.886178	-5.422500
676	 1	 -35.170533	-5.092417	-5.422500
677	 1	 -35.145957	-6.892039	-3.615000
678	 1	 -33.359786	-5.087117	-3.615000
679	 1	 -33.334140	-6.886178	-1.807500
680	 1	 -35.170533	-5.092417	-1.807500
681	 1	 -35.145957	-6.892039	0.000000
682	 1	 -33.359786	-5.087117	0.000000
683	 1	 -33.334140	-6.886178	1.807500
684	 1	 -35.170533	-5.092417	1.807500
685	 1	 -35.145957	-6.892039	3.615000
686	 1	 -33.359786	-5.087117	3.615000
687	 1	 -33.334140	-6.886178	5.422500
688	 1	 -35.170533	-5.092417	5.422500
689	 1	 -35.145957	-6.892039	7.230000
690	 1	 -33.359786	-5.087117	7.230000
691	 1	 -33.334140	-6.886178	9.037500
692	 1	 -35.170533	-5.092417	9.037500
693	 1	 -35.145957	-6.892039	10.845000
694	 1	 -33.359786	-5.087117	10.845000
695	 1	 -33.334140	-6.886178	12.652500
696	 1	 -35.170533	-5.092417	12.652500
697	 1	 -35.145957	-6.892039	14.460000
698	 1	 -33.359786	-5.087117	14.460000
699	 1	 -33.334140	-6.886178	16.267500
700	 1	 -35.170533	-5.092417	16.267500
701	 1	 -35.145957	-6.892039	18.075000
702	 1	 -33.359786	-5.087117	18.075000
703	 1	 -33.334140	-6.886178	19.882500
704	 1	 -35.170533	-5.092417	19.882500
705	 1	 -35.145957	-6.892039	21.690000
706	 1	 -33.359786	-5.087117	21.690000
707	 1	 -33.334140	-6.886178	23.497500
708	 1	 -35.170533	-5.092417	23.497500
709	 1	 -35.145957	-6.892039	25.305000
710	 1	 -33.359786	-5.087117	25.305000
711	 1	 -33.334140	-6.886178	27.112500
712	 1	 -35.170533	-5.092417	27.112500
713	 1	 -35.145957	-6.892039	28.920000
714	 1	 -33.359786	-5.087117	28.920000
715	 1	 -33.334140	-6.886178	30.727500
716	 1	 -35.170533	-5.092417	30.727500
717	 1	 -35.145957	-6.892039	32.535000
718	 1	 -33.359786	-5.087117	32.535000
719	 1	 -33.334140	-6.886178	34.342500
720	 1	 -35.170533	-5.092417	34.342500
721	 1	 -35.195196	-3.292094	-36.150000
722	 1	 -33.411308	-1.486690	-36.150000
723	 1	 -33.385576	-3.287306	-34.342500
724	 1	 -35.219766	-1.491027	-34.342500
725	 1	 -35.195196	-3.292094	-32.535000
726	 1	 -33.411308	-1.486690	-32.535000
727	 1	 -33.385576	-3.287306	-30.727500
728	 1	 -35.219766	-1.491027	-30.727500
729	 1	 -35.195196	-3.292094	-28.920000
730	 1	 -33.411308	-1.486690	-28.920000
731	 1	 -33.385576	-3.287306	-27.112500
732	 1	 -35.219766	-1.491027	-27.112500
733	 1	 -35.195196	-3.292094	-25.305000
734	 1	 -33.411308	-1.486690	-25.305000
735	 1	 -33.385576	-3.287306	-23.497500
736	 1	 -35.219766	-1.491027	-23.497500
737	 1	 -35.195196	-3.292094	-21.690000
738	 1	 -33.411308	-1.486690	-21.690000
739	 1	 -33.385576	-3.287306	-19.882500
740	 1	 -35.219766	-1.491027	-19.882500
741	 1	 -35.195196	-3.292094	-18.075000
742	 1	 -33.411308	-1.486690	-18.075000
743	 1	 -33.385576	-3.287306	-16.267500
744	 1	 -35.219766	-1.491027	-16.267500
745	 1	 -35.195196	-3.292094	-14.460000
746	 1	 -33.411308	-1.486690	-14.460000
747	 1	 -33.385576	-3.287306	-12.652500